title       = Production MD 300K
integrator  = md
nsteps      = 100000
dt          = 0.002
nstxout-compressed = 500
nstenergy   = 500
nstlog      = 500
continuation    = yes
constraint_algorithm = lincs
constraints     = h-bonds
cutoff-scheme   = Verlet
coulombtype     = PME
rcoulomb        = 1.0
rvdw            = 1.0
tcoupl          = V-rescale
tc-grps         = Protein Non-Protein
tau_t           = 0.1  0.1
ref_t           = 300  300
pcoupl          = Parrinello-Rahman
pcoupltype      = isotropic
tau_p           = 2.0
ref_p           = 1.0
compressibility = 4.5e-5
refcoord_scaling = com
pbc             = xyz
gen_vel         = no
