title       = NVT equilibration 400K
define      = -DPOSRES
integrator  = md
nsteps      = 50000
dt          = 0.002
nstxout     = 500
nstvout     = 500
nstenergy   = 500
nstlog      = 500
continuation    = no
constraint_algorithm = lincs
constraints     = h-bonds
cutoff-scheme   = Verlet
coulombtype     = PME
rcoulomb        = 1.0
rvdw            = 1.0
tcoupl          = V-rescale
tc-grps         = Protein Non-Protein
tau_t           = 0.1  0.1
ref_t           = 400  400
pcoupl          = no
pbc             = xyz
gen_vel         = yes
gen_temp        = 400
gen_seed        = -1
